# vtk DataFile Version 2.0
VTK from Matlab
ASCII
DATASET STRUCTURED_GRID
DIMENSIONS 11 11 7
POINTS 847 float
0.00 0.00 100.00 16.00 0.00 100.00 32.00 0.00 100.00 48.00 0.00 100.00 64.00 0.00 100.00 80.00 0.00 100.00 96.00 0.00 100.00 112.00 0.00 100.00 128.00 0.00 100.00 144.00 0.00 100.00 160.00 0.00 100.00 0.00 16.00 100.00 16.00 16.00 100.00 32.00 16.00 100.00 48.00 16.00 100.00 64.00 16.00 100.00 80.00 16.00 100.00 96.00 16.00 100.00 112.00 16.00 100.00 128.00 16.00 100.00 144.00 16.00 100.00 160.00 16.00 100.00 0.00 32.00 100.00 16.00 32.00 100.00 32.00 32.00 100.00 48.00 32.00 100.00 64.00 32.00 100.00 80.00 32.00 100.00 96.00 32.00 100.00 112.00 32.00 100.00 128.00 32.00 100.00 144.00 32.00 100.00 160.00 32.00 100.00 0.00 48.00 100.00 16.00 48.00 100.00 32.00 48.00 100.00 48.00 48.00 100.00 64.00 48.00 100.00 80.00 48.00 100.00 96.00 48.00 100.00 112.00 48.00 100.00 128.00 48.00 100.00 144.00 48.00 100.00 160.00 48.00 100.00 0.00 64.00 100.00 16.00 64.00 100.00 32.00 64.00 100.00 48.00 64.00 100.00 64.00 64.00 100.00 80.00 64.00 100.00 96.00 64.00 100.00 112.00 64.00 100.00 128.00 64.00 100.00 144.00 64.00 100.00 160.00 64.00 100.00 0.00 80.00 100.00 16.00 80.00 100.00 32.00 80.00 100.00 48.00 80.00 100.00 64.00 80.00 100.00 80.00 80.00 100.00 96.00 80.00 100.00 112.00 80.00 100.00 128.00 80.00 100.00 144.00 80.00 100.00 160.00 80.00 100.00 0.00 96.00 100.00 16.00 96.00 100.00 32.00 96.00 100.00 48.00 96.00 100.00 64.00 96.00 100.00 80.00 96.00 100.00 96.00 96.00 100.00 112.00 96.00 100.00 128.00 96.00 100.00 144.00 96.00 100.00 160.00 96.00 100.00 0.00 112.00 100.00 16.00 112.00 100.00 32.00 112.00 100.00 48.00 112.00 100.00 64.00 112.00 100.00 80.00 112.00 100.00 96.00 112.00 100.00 112.00 112.00 100.00 128.00 112.00 100.00 144.00 112.00 100.00 160.00 112.00 100.00 0.00 128.00 100.00 16.00 128.00 100.00 32.00 128.00 100.00 48.00 128.00 100.00 64.00 128.00 100.00 80.00 128.00 100.00 96.00 128.00 100.00 112.00 128.00 100.00 128.00 128.00 100.00 144.00 128.00 100.00 160.00 128.00 100.00 0.00 144.00 100.00 16.00 144.00 100.00 32.00 144.00 100.00 48.00 144.00 100.00 64.00 144.00 100.00 80.00 144.00 100.00 96.00 144.00 100.00 112.00 144.00 100.00 128.00 144.00 100.00 144.00 144.00 100.00 160.00 144.00 100.00 0.00 160.00 100.00 16.00 160.00 100.00 32.00 160.00 100.00 48.00 160.00 100.00 64.00 160.00 100.00 80.00 160.00 100.00 96.00 160.00 100.00 112.00 160.00 100.00 128.00 160.00 100.00 144.00 160.00 100.00 160.00 160.00 100.00 0.00 0.00 95.00 16.00 0.00 95.00 32.00 0.00 95.00 48.00 0.00 95.00 64.00 0.00 95.00 80.00 0.00 95.00 96.00 0.00 95.00 112.00 0.00 95.00 128.00 0.00 95.00 144.00 0.00 95.00 160.00 0.00 95.00 0.00 16.00 95.00 16.00 16.00 95.00 32.00 16.00 95.00 48.00 16.00 95.00 64.00 16.00 95.00 80.00 16.00 95.00 96.00 16.00 95.00 112.00 16.00 95.00 128.00 16.00 95.00 144.00 16.00 95.00 160.00 16.00 95.00 0.00 32.00 95.00 16.00 32.00 95.00 32.00 32.00 95.00 48.00 32.00 95.00 64.00 32.00 95.00 80.00 32.00 95.00 96.00 32.00 95.00 112.00 32.00 95.00 128.00 32.00 95.00 144.00 32.00 95.00 160.00 32.00 95.00 0.00 48.00 95.00 16.00 48.00 95.00 32.00 48.00 95.00 48.00 48.00 95.00 64.00 48.00 95.00 80.00 48.00 95.00 96.00 48.00 95.00 112.00 48.00 95.00 128.00 48.00 95.00 144.00 48.00 95.00 160.00 48.00 95.00 0.00 64.00 95.00 16.00 64.00 95.00 32.00 64.00 95.00 48.00 64.00 95.00 64.00 64.00 95.00 80.00 64.00 95.00 96.00 64.00 95.00 112.00 64.00 95.00 128.00 64.00 95.00 144.00 64.00 95.00 160.00 64.00 95.00 0.00 80.00 95.00 16.00 80.00 95.00 32.00 80.00 95.00 48.00 80.00 95.00 64.00 80.00 95.00 80.00 80.00 95.00 96.00 80.00 95.00 112.00 80.00 95.00 128.00 80.00 95.00 144.00 80.00 95.00 160.00 80.00 95.00 0.00 96.00 95.00 16.00 96.00 95.00 32.00 96.00 95.00 48.00 96.00 95.00 64.00 96.00 95.00 80.00 96.00 95.00 96.00 96.00 95.00 112.00 96.00 95.00 128.00 96.00 95.00 144.00 96.00 95.00 160.00 96.00 95.00 0.00 112.00 95.00 16.00 112.00 95.00 32.00 112.00 95.00 48.00 112.00 95.00 64.00 112.00 95.00 80.00 112.00 95.00 96.00 112.00 95.00 112.00 112.00 95.00 128.00 112.00 95.00 144.00 112.00 95.00 160.00 112.00 95.00 0.00 128.00 95.00 16.00 128.00 95.00 32.00 128.00 95.00 48.00 128.00 95.00 64.00 128.00 95.00 80.00 128.00 95.00 96.00 128.00 95.00 112.00 128.00 95.00 128.00 128.00 95.00 144.00 128.00 95.00 160.00 128.00 95.00 0.00 144.00 95.00 16.00 144.00 95.00 32.00 144.00 95.00 48.00 144.00 95.00 64.00 144.00 95.00 80.00 144.00 95.00 96.00 144.00 95.00 112.00 144.00 95.00 128.00 144.00 95.00 144.00 144.00 95.00 160.00 144.00 95.00 0.00 160.00 95.00 16.00 160.00 95.00 32.00 160.00 95.00 48.00 160.00 95.00 64.00 160.00 95.00 80.00 160.00 95.00 96.00 160.00 95.00 112.00 160.00 95.00 128.00 160.00 95.00 144.00 160.00 95.00 160.00 160.00 95.00 0.00 0.00 90.00 16.00 0.00 90.00 32.00 0.00 90.00 48.00 0.00 90.00 64.00 0.00 90.00 80.00 0.00 90.00 96.00 0.00 90.00 112.00 0.00 90.00 128.00 0.00 90.00 144.00 0.00 90.00 160.00 0.00 90.00 0.00 16.00 90.00 16.00 16.00 90.00 32.00 16.00 90.00 48.00 16.00 90.00 64.00 16.00 90.00 80.00 16.00 90.00 96.00 16.00 90.00 112.00 16.00 90.00 128.00 16.00 90.00 144.00 16.00 90.00 160.00 16.00 90.00 0.00 32.00 90.00 16.00 32.00 90.00 32.00 32.00 90.00 48.00 32.00 90.00 64.00 32.00 90.00 80.00 32.00 90.00 96.00 32.00 90.00 112.00 32.00 90.00 128.00 32.00 90.00 144.00 32.00 90.00 160.00 32.00 90.00 0.00 48.00 90.00 16.00 48.00 90.00 32.00 48.00 90.00 48.00 48.00 90.00 64.00 48.00 90.00 80.00 48.00 90.00 96.00 48.00 90.00 112.00 48.00 90.00 128.00 48.00 90.00 144.00 48.00 90.00 160.00 48.00 90.00 0.00 64.00 90.00 16.00 64.00 90.00 32.00 64.00 90.00 48.00 64.00 90.00 64.00 64.00 90.00 80.00 64.00 90.00 96.00 64.00 90.00 112.00 64.00 90.00 128.00 64.00 90.00 144.00 64.00 90.00 160.00 64.00 90.00 0.00 80.00 90.00 16.00 80.00 90.00 32.00 80.00 90.00 48.00 80.00 90.00 64.00 80.00 90.00 80.00 80.00 90.00 96.00 80.00 90.00 112.00 80.00 90.00 128.00 80.00 90.00 144.00 80.00 90.00 160.00 80.00 90.00 0.00 96.00 90.00 16.00 96.00 90.00 32.00 96.00 90.00 48.00 96.00 90.00 64.00 96.00 90.00 80.00 96.00 90.00 96.00 96.00 90.00 112.00 96.00 90.00 128.00 96.00 90.00 144.00 96.00 90.00 160.00 96.00 90.00 0.00 112.00 90.00 16.00 112.00 90.00 32.00 112.00 90.00 48.00 112.00 90.00 64.00 112.00 90.00 80.00 112.00 90.00 96.00 112.00 90.00 112.00 112.00 90.00 128.00 112.00 90.00 144.00 112.00 90.00 160.00 112.00 90.00 0.00 128.00 90.00 16.00 128.00 90.00 32.00 128.00 90.00 48.00 128.00 90.00 64.00 128.00 90.00 80.00 128.00 90.00 96.00 128.00 90.00 112.00 128.00 90.00 128.00 128.00 90.00 144.00 128.00 90.00 160.00 128.00 90.00 0.00 144.00 90.00 16.00 144.00 90.00 32.00 144.00 90.00 48.00 144.00 90.00 64.00 144.00 90.00 80.00 144.00 90.00 96.00 144.00 90.00 112.00 144.00 90.00 128.00 144.00 90.00 144.00 144.00 90.00 160.00 144.00 90.00 0.00 160.00 90.00 16.00 160.00 90.00 32.00 160.00 90.00 48.00 160.00 90.00 64.00 160.00 90.00 80.00 160.00 90.00 96.00 160.00 90.00 112.00 160.00 90.00 128.00 160.00 90.00 144.00 160.00 90.00 160.00 160.00 90.00 0.00 0.00 85.00 16.00 0.00 85.00 32.00 0.00 85.00 48.00 0.00 85.00 64.00 0.00 85.00 80.00 0.00 85.00 96.00 0.00 85.00 112.00 0.00 85.00 128.00 0.00 85.00 144.00 0.00 85.00 160.00 0.00 85.00 0.00 16.00 85.00 16.00 16.00 85.00 32.00 16.00 85.00 48.00 16.00 85.00 64.00 16.00 85.00 80.00 16.00 85.00 96.00 16.00 85.00 112.00 16.00 85.00 128.00 16.00 85.00 144.00 16.00 85.00 160.00 16.00 85.00 0.00 32.00 85.00 16.00 32.00 85.00 32.00 32.00 85.00 48.00 32.00 85.00 64.00 32.00 85.00 80.00 32.00 85.00 96.00 32.00 85.00 112.00 32.00 85.00 128.00 32.00 85.00 144.00 32.00 85.00 160.00 32.00 85.00 0.00 48.00 85.00 16.00 48.00 85.00 32.00 48.00 85.00 48.00 48.00 85.00 64.00 48.00 85.00 80.00 48.00 85.00 96.00 48.00 85.00 112.00 48.00 85.00 128.00 48.00 85.00 144.00 48.00 85.00 160.00 48.00 85.00 0.00 64.00 85.00 16.00 64.00 85.00 32.00 64.00 85.00 48.00 64.00 85.00 64.00 64.00 85.00 80.00 64.00 85.00 96.00 64.00 85.00 112.00 64.00 85.00 128.00 64.00 85.00 144.00 64.00 85.00 160.00 64.00 85.00 0.00 80.00 85.00 16.00 80.00 85.00 32.00 80.00 85.00 48.00 80.00 85.00 64.00 80.00 85.00 80.00 80.00 85.00 96.00 80.00 85.00 112.00 80.00 85.00 128.00 80.00 85.00 144.00 80.00 85.00 160.00 80.00 85.00 0.00 96.00 85.00 16.00 96.00 85.00 32.00 96.00 85.00 48.00 96.00 85.00 64.00 96.00 85.00 80.00 96.00 85.00 96.00 96.00 85.00 112.00 96.00 85.00 128.00 96.00 85.00 144.00 96.00 85.00 160.00 96.00 85.00 0.00 112.00 85.00 16.00 112.00 85.00 32.00 112.00 85.00 48.00 112.00 85.00 64.00 112.00 85.00 80.00 112.00 85.00 96.00 112.00 85.00 112.00 112.00 85.00 128.00 112.00 85.00 144.00 112.00 85.00 160.00 112.00 85.00 0.00 128.00 85.00 16.00 128.00 85.00 32.00 128.00 85.00 48.00 128.00 85.00 64.00 128.00 85.00 80.00 128.00 85.00 96.00 128.00 85.00 112.00 128.00 85.00 128.00 128.00 85.00 144.00 128.00 85.00 160.00 128.00 85.00 0.00 144.00 85.00 16.00 144.00 85.00 32.00 144.00 85.00 48.00 144.00 85.00 64.00 144.00 85.00 80.00 144.00 85.00 96.00 144.00 85.00 112.00 144.00 85.00 128.00 144.00 85.00 144.00 144.00 85.00 160.00 144.00 85.00 0.00 160.00 85.00 16.00 160.00 85.00 32.00 160.00 85.00 48.00 160.00 85.00 64.00 160.00 85.00 80.00 160.00 85.00 96.00 160.00 85.00 112.00 160.00 85.00 128.00 160.00 85.00 144.00 160.00 85.00 160.00 160.00 85.00 0.00 0.00 80.00 16.00 0.00 80.00 32.00 0.00 80.00 48.00 0.00 80.00 64.00 0.00 80.00 80.00 0.00 80.00 96.00 0.00 80.00 112.00 0.00 80.00 128.00 0.00 80.00 144.00 0.00 80.00 160.00 0.00 80.00 0.00 16.00 80.00 16.00 16.00 80.00 32.00 16.00 80.00 48.00 16.00 80.00 64.00 16.00 80.00 80.00 16.00 80.00 96.00 16.00 80.00 112.00 16.00 80.00 128.00 16.00 80.00 144.00 16.00 80.00 160.00 16.00 80.00 0.00 32.00 80.00 16.00 32.00 80.00 32.00 32.00 80.00 48.00 32.00 80.00 64.00 32.00 80.00 80.00 32.00 80.00 96.00 32.00 80.00 112.00 32.00 80.00 128.00 32.00 80.00 144.00 32.00 80.00 160.00 32.00 80.00 0.00 48.00 80.00 16.00 48.00 80.00 32.00 48.00 80.00 48.00 48.00 80.00 64.00 48.00 80.00 80.00 48.00 80.00 96.00 48.00 80.00 112.00 48.00 80.00 128.00 48.00 80.00 144.00 48.00 80.00 160.00 48.00 80.00 0.00 64.00 80.00 16.00 64.00 80.00 32.00 64.00 80.00 48.00 64.00 80.00 64.00 64.00 80.00 80.00 64.00 80.00 96.00 64.00 80.00 112.00 64.00 80.00 128.00 64.00 80.00 144.00 64.00 80.00 160.00 64.00 80.00 0.00 80.00 80.00 16.00 80.00 80.00 32.00 80.00 80.00 48.00 80.00 80.00 64.00 80.00 80.00 80.00 80.00 80.00 96.00 80.00 80.00 112.00 80.00 80.00 128.00 80.00 80.00 144.00 80.00 80.00 160.00 80.00 80.00 0.00 96.00 80.00 16.00 96.00 80.00 32.00 96.00 80.00 48.00 96.00 80.00 64.00 96.00 80.00 80.00 96.00 80.00 96.00 96.00 80.00 112.00 96.00 80.00 128.00 96.00 80.00 144.00 96.00 80.00 160.00 96.00 80.00 0.00 112.00 80.00 16.00 112.00 80.00 32.00 112.00 80.00 48.00 112.00 80.00 64.00 112.00 80.00 80.00 112.00 80.00 96.00 112.00 80.00 112.00 112.00 80.00 128.00 112.00 80.00 144.00 112.00 80.00 160.00 112.00 80.00 0.00 128.00 80.00 16.00 128.00 80.00 32.00 128.00 80.00 48.00 128.00 80.00 64.00 128.00 80.00 80.00 128.00 80.00 96.00 128.00 80.00 112.00 128.00 80.00 128.00 128.00 80.00 144.00 128.00 80.00 160.00 128.00 80.00 0.00 144.00 80.00 16.00 144.00 80.00 32.00 144.00 80.00 48.00 144.00 80.00 64.00 144.00 80.00 80.00 144.00 80.00 96.00 144.00 80.00 112.00 144.00 80.00 128.00 144.00 80.00 144.00 144.00 80.00 160.00 144.00 80.00 0.00 160.00 80.00 16.00 160.00 80.00 32.00 160.00 80.00 48.00 160.00 80.00 64.00 160.00 80.00 80.00 160.00 80.00 96.00 160.00 80.00 112.00 160.00 80.00 128.00 160.00 80.00 144.00 160.00 80.00 160.00 160.00 80.00 0.00 0.00 75.00 16.00 0.00 75.00 32.00 0.00 75.00 48.00 0.00 75.00 64.00 0.00 75.00 80.00 0.00 75.00 96.00 0.00 75.00 112.00 0.00 75.00 128.00 0.00 75.00 144.00 0.00 75.00 160.00 0.00 75.00 0.00 16.00 75.00 16.00 16.00 75.00 32.00 16.00 75.00 48.00 16.00 75.00 64.00 16.00 75.00 80.00 16.00 75.00 96.00 16.00 75.00 112.00 16.00 75.00 128.00 16.00 75.00 144.00 16.00 75.00 160.00 16.00 75.00 0.00 32.00 75.00 16.00 32.00 75.00 32.00 32.00 75.00 48.00 32.00 75.00 64.00 32.00 75.00 80.00 32.00 75.00 96.00 32.00 75.00 112.00 32.00 75.00 128.00 32.00 75.00 144.00 32.00 75.00 160.00 32.00 75.00 0.00 48.00 75.00 16.00 48.00 75.00 32.00 48.00 75.00 48.00 48.00 75.00 64.00 48.00 75.00 80.00 48.00 75.00 96.00 48.00 75.00 112.00 48.00 75.00 128.00 48.00 75.00 144.00 48.00 75.00 160.00 48.00 75.00 0.00 64.00 75.00 16.00 64.00 75.00 32.00 64.00 75.00 48.00 64.00 75.00 64.00 64.00 75.00 80.00 64.00 75.00 96.00 64.00 75.00 112.00 64.00 75.00 128.00 64.00 75.00 144.00 64.00 75.00 160.00 64.00 75.00 0.00 80.00 75.00 16.00 80.00 75.00 32.00 80.00 75.00 48.00 80.00 75.00 64.00 80.00 75.00 80.00 80.00 75.00 96.00 80.00 75.00 112.00 80.00 75.00 128.00 80.00 75.00 144.00 80.00 75.00 160.00 80.00 75.00 0.00 96.00 75.00 16.00 96.00 75.00 32.00 96.00 75.00 48.00 96.00 75.00 64.00 96.00 75.00 80.00 96.00 75.00 96.00 96.00 75.00 112.00 96.00 75.00 128.00 96.00 75.00 144.00 96.00 75.00 160.00 96.00 75.00 0.00 112.00 75.00 16.00 112.00 75.00 32.00 112.00 75.00 48.00 112.00 75.00 64.00 112.00 75.00 80.00 112.00 75.00 96.00 112.00 75.00 112.00 112.00 75.00 128.00 112.00 75.00 144.00 112.00 75.00 160.00 112.00 75.00 0.00 128.00 75.00 16.00 128.00 75.00 32.00 128.00 75.00 48.00 128.00 75.00 64.00 128.00 75.00 80.00 128.00 75.00 96.00 128.00 75.00 112.00 128.00 75.00 128.00 128.00 75.00 144.00 128.00 75.00 160.00 128.00 75.00 0.00 144.00 75.00 16.00 144.00 75.00 32.00 144.00 75.00 48.00 144.00 75.00 64.00 144.00 75.00 80.00 144.00 75.00 96.00 144.00 75.00 112.00 144.00 75.00 128.00 144.00 75.00 144.00 144.00 75.00 160.00 144.00 75.00 0.00 160.00 75.00 16.00 160.00 75.00 32.00 160.00 75.00 48.00 160.00 75.00 64.00 160.00 75.00 80.00 160.00 75.00 96.00 160.00 75.00 112.00 160.00 75.00 128.00 160.00 75.00 144.00 160.00 75.00 160.00 160.00 75.00 0.00 0.00 70.00 16.00 0.00 70.00 32.00 0.00 70.00 48.00 0.00 70.00 64.00 0.00 70.00 80.00 0.00 70.00 96.00 0.00 70.00 112.00 0.00 70.00 128.00 0.00 70.00 144.00 0.00 70.00 160.00 0.00 70.00 0.00 16.00 70.00 16.00 16.00 70.00 32.00 16.00 70.00 48.00 16.00 70.00 64.00 16.00 70.00 80.00 16.00 70.00 96.00 16.00 70.00 112.00 16.00 70.00 128.00 16.00 70.00 144.00 16.00 70.00 160.00 16.00 70.00 0.00 32.00 70.00 16.00 32.00 70.00 32.00 32.00 70.00 48.00 32.00 70.00 64.00 32.00 70.00 80.00 32.00 70.00 96.00 32.00 70.00 112.00 32.00 70.00 128.00 32.00 70.00 144.00 32.00 70.00 160.00 32.00 70.00 0.00 48.00 70.00 16.00 48.00 70.00 32.00 48.00 70.00 48.00 48.00 70.00 64.00 48.00 70.00 80.00 48.00 70.00 96.00 48.00 70.00 112.00 48.00 70.00 128.00 48.00 70.00 144.00 48.00 70.00 160.00 48.00 70.00 0.00 64.00 70.00 16.00 64.00 70.00 32.00 64.00 70.00 48.00 64.00 70.00 64.00 64.00 70.00 80.00 64.00 70.00 96.00 64.00 70.00 112.00 64.00 70.00 128.00 64.00 70.00 144.00 64.00 70.00 160.00 64.00 70.00 0.00 80.00 70.00 16.00 80.00 70.00 32.00 80.00 70.00 48.00 80.00 70.00 64.00 80.00 70.00 80.00 80.00 70.00 96.00 80.00 70.00 112.00 80.00 70.00 128.00 80.00 70.00 144.00 80.00 70.00 160.00 80.00 70.00 0.00 96.00 70.00 16.00 96.00 70.00 32.00 96.00 70.00 48.00 96.00 70.00 64.00 96.00 70.00 80.00 96.00 70.00 96.00 96.00 70.00 112.00 96.00 70.00 128.00 96.00 70.00 144.00 96.00 70.00 160.00 96.00 70.00 0.00 112.00 70.00 16.00 112.00 70.00 32.00 112.00 70.00 48.00 112.00 70.00 64.00 112.00 70.00 80.00 112.00 70.00 96.00 112.00 70.00 112.00 112.00 70.00 128.00 112.00 70.00 144.00 112.00 70.00 160.00 112.00 70.00 0.00 128.00 70.00 16.00 128.00 70.00 32.00 128.00 70.00 48.00 128.00 70.00 64.00 128.00 70.00 80.00 128.00 70.00 96.00 128.00 70.00 112.00 128.00 70.00 128.00 128.00 70.00 144.00 128.00 70.00 160.00 128.00 70.00 0.00 144.00 70.00 16.00 144.00 70.00 32.00 144.00 70.00 48.00 144.00 70.00 64.00 144.00 70.00 80.00 144.00 70.00 96.00 144.00 70.00 112.00 144.00 70.00 128.00 144.00 70.00 144.00 144.00 70.00 160.00 144.00 70.00 0.00 160.00 70.00 16.00 160.00 70.00 32.00 160.00 70.00 48.00 160.00 70.00 64.00 160.00 70.00 80.00 160.00 70.00 96.00 160.00 70.00 112.00 160.00 70.00 128.00 160.00 70.00 144.00 160.00 70.00 160.00 160.00 70.00 
POINT_DATA 847
SCALARS V float
LOOKUP_TABLE default
240.00 240.00 240.00 240.74 245.59 224.21 219.78 237.53 239.86 239.98 240.00 240.00 240.00 239.95 240.01 245.64 237.14 221.19 235.18 239.07 239.85 239.96 240.00 239.98 239.40 234.38 233.90 233.46 230.61 221.08 229.77 237.62 238.95 240.00 239.81 236.37 219.23 223.72 213.80 224.12 223.35 212.07 225.42 232.24 239.95 239.19 234.09 220.56 212.89 209.55 213.64 221.39 226.89 232.54 240.45 239.69 237.88 235.23 210.04 207.66 193.09 207.43 214.86 236.63 238.05 240.20 235.39 233.48 228.30 229.90 225.36 213.72 227.26 219.49 226.26 238.13 239.63 237.88 236.97 231.68 238.40 222.26 216.25 217.97 235.79 239.81 239.85 239.94 239.82 239.79 239.43 237.73 229.53 225.52 227.92 256.44 241.34 240.03 240.00 240.00 240.00 239.99 239.63 238.87 240.02 246.81 243.01 240.31 240.00 240.00 240.00 240.00 240.00 239.95 240.30 243.97 253.49 242.22 240.10 240.00 240.00 240.00 240.00 240.00 240.74 245.59 224.21 219.78 237.53 239.86 239.98 240.00 240.00 240.00 239.95 240.01 245.64 237.14 221.19 235.18 239.07 239.85 239.96 240.00 239.98 239.40 234.38 233.90 233.46 230.61 221.08 229.77 237.62 238.95 240.00 239.81 236.37 219.23 223.72 213.80 224.12 223.35 212.07 225.42 232.24 239.95 239.19 234.09 220.56 212.89 209.55 213.64 221.39 226.89 232.54 240.45 239.69 237.88 235.23 210.04 207.66 193.09 207.43 214.86 236.63 238.05 240.20 235.39 233.48 228.30 229.90 225.36 213.72 227.26 219.49 226.26 238.13 239.63 237.88 236.97 231.68 238.40 222.26 216.25 217.97 235.79 239.81 239.85 239.94 239.82 239.79 239.43 237.73 229.53 225.52 227.92 256.44 241.34 240.03 240.00 240.00 240.00 239.99 239.63 238.87 240.02 246.81 243.01 240.31 240.00 240.00 240.00 240.00 240.00 239.95 240.30 243.97 253.49 242.22 240.10 240.00 240.00 328.47 328.47 328.46 329.26 332.02 283.30 290.25 323.37 328.09 328.43 328.47 328.47 328.47 328.31 327.59 331.45 308.67 282.99 317.73 326.90 328.26 328.43 328.47 328.44 327.15 314.41 300.92 302.92 302.91 296.74 310.58 324.82 327.32 328.47 328.05 321.46 276.71 280.67 274.72 305.23 314.62 278.32 305.50 319.51 328.35 326.52 314.20 274.78 265.27 268.79 269.00 289.26 312.76 321.93 332.98 327.70 324.16 306.47 262.86 253.09 247.74 266.75 287.47 329.25 326.08 328.13 319.99 313.41 286.35 296.66 287.20 283.33 303.86 295.40 303.98 325.12 327.75 324.30 321.49 307.71 315.32 291.72 288.85 292.34 319.13 328.29 328.22 328.37 328.11 327.95 326.56 320.57 307.45 302.74 307.64 357.21 330.70 328.51 328.47 328.47 328.47 328.35 327.22 325.87 330.07 341.13 333.33 329.01 328.47 328.47 328.47 328.47 328.47 328.35 328.86 336.41 352.16 332.44 328.67 328.47 328.47 1250.00 1250.00 1249.67 1244.44 1132.28 781.56 925.93 1165.68 1241.49 1249.57 1250.00 1250.00 1250.00 1246.28 1210.32 1037.02 806.08 839.86 1105.52 1232.35 1248.99 1250.62 1250.00 1249.53 1225.69 989.20 759.47 751.11 860.50 981.30 1086.36 1229.15 1258.21 1250.00 1242.10 1151.40 777.89 777.64 850.81 992.86 1093.51 876.47 1100.05 1286.41 1247.52 1210.78 968.00 737.70 760.83 916.74 977.73 1094.15 971.95 1120.38 1304.61 1233.64 1172.98 874.38 728.96 785.72 842.98 1033.65 905.83 1042.80 1148.59 1225.49 1141.56 1074.90 823.43 846.96 964.89 1030.08 1027.91 895.94 968.13 1207.29 1239.38 1190.32 1135.02 918.47 930.13 917.07 982.43 921.46 1165.73 1252.23 1247.30 1249.00 1244.29 1239.31 1193.23 1023.80 923.20 950.48 1047.39 1581.12 1274.94 1250.47 1250.00 1250.00 1249.77 1245.36 1217.04 1196.93 1219.10 1428.23 1311.48 1256.81 1250.02 1250.00 1250.00 1250.00 1249.99 1247.41 1251.12 1381.61 1564.78 1303.63 1253.44 1250.00 1250.00 1250.00 1250.00 1249.79 1247.22 1222.22 1196.23 1141.65 1219.80 1247.19 1249.85 1250.00 1250.00 1250.00 1248.11 1222.66 1100.56 1095.92 1068.21 1201.87 1252.21 1251.47 1250.96 1250.00 1249.77 1234.77 1027.01 834.93 942.68 1032.58 1273.63 1297.29 1278.68 1264.44 1250.00 1246.18 1172.64 827.33 817.35 851.73 1058.02 1225.19 1244.07 1354.91 1371.64 1248.98 1228.78 1023.02 817.60 818.42 878.93 1025.50 1079.59 1141.50 1328.53 1380.21 1243.33 1196.60 937.59 863.90 835.91 928.51 985.72 1132.58 1282.02 1250.84 1259.19 1208.23 1180.78 941.02 880.14 924.56 986.19 1144.37 1071.72 1169.60 1246.96 1248.91 1226.96 1199.38 1032.78 981.04 991.07 1139.43 1113.97 1324.91 1272.57 1251.34 1249.65 1247.78 1245.22 1219.47 1123.40 1110.30 1202.04 1345.05 1415.79 1267.07 1250.34 1250.00 1250.00 1249.89 1247.88 1235.47 1237.16 1324.34 1460.16 1295.48 1253.83 1250.01 1250.00 1250.00 1250.00 1250.00 1249.05 1253.30 1318.19 1379.45 1275.96 1251.52 1250.00 1250.00 1250.00 1250.00 1249.90 1249.08 1255.75 1343.06 1267.37 1249.44 1250.08 1249.99 1250.00 1250.00 1250.00 1249.35 1239.26 1201.84 1348.47 1421.39 1282.94 1258.64 1251.81 1250.75 1250.00 1249.92 1243.23 1128.29 1007.79 1207.35 1402.09 1639.04 1378.62 1269.42 1260.19 1250.00 1248.77 1209.92 978.12 966.87 1014.58 1191.82 1656.15 1517.84 1352.11 1313.11 1249.81 1242.42 1139.31 973.31 1007.39 991.69 1300.87 1626.40 1618.11 1451.09 1351.53 1248.82 1230.71 1088.45 1014.73 1072.81 1355.39 1411.61 1737.84 1690.06 1298.65 1267.73 1246.21 1235.90 1154.55 1146.48 1443.96 1649.73 1754.37 1622.01 1365.36 1261.93 1252.50 1247.18 1240.05 1197.42 1271.62 1530.49 1739.77 1657.26 1589.68 1281.47 1252.27 1249.98 1249.70 1248.87 1243.53 1233.08 1337.59 1691.32 1602.87 1374.10 1259.37 1250.18 1250.00 1250.00 1249.97 1249.44 1246.69 1256.17 1307.13 1315.11 1269.62 1251.57 1250.00 1250.00 1250.00 1250.00 1250.00 1249.91 1252.97 1273.93 1292.38 1258.37 1250.38 1250.00 1250.00 1250.00 1250.00 1250.00 1250.01 1250.30 1251.31 1251.53 1250.41 1250.03 1250.00 1250.00 1250.00 1250.00 1249.97 1249.74 1247.88 1273.05 1263.09 1251.75 1250.20 1250.02 1250.00 1250.00 1249.98 1248.82 1224.84 1185.79 1407.97 1293.26 1271.15 1252.04 1250.15 1250.00 1250.00 1249.83 1236.38 1181.25 1105.72 1585.50 1536.37 1323.02 1265.05 1250.72 1250.04 1250.00 1249.56 1220.11 1130.24 1232.17 1555.83 1690.37 1509.56 1293.41 1252.45 1250.17 1250.00 1249.33 1230.78 1183.85 1507.30 1740.47 1719.11 1540.12 1286.52 1251.69 1250.08 1250.00 1249.98 1262.12 1281.83 1586.28 1679.34 1555.29 1369.49 1261.58 1250.57 1250.01 1250.00 1250.01 1250.04 1259.17 1324.55 1372.48 1315.44 1275.36 1251.39 1250.06 1250.00 1250.00 1250.00 1250.04 1250.74 1255.54 1265.18 1255.86 1251.63 1250.09 1250.00 1250.00 1250.00 1250.00 1250.00 1250.02 1250.17 1250.43 1250.20 1250.03 1250.00 1250.00 1250.00 1250.00 1250.00 1250.00 1250.00 1250.00 1250.00 1250.00 1250.00 1250.00 1250.00 1250.00 